# Residuals     
# Time          	p               	sigmaxx         	sigmaxy         	sigmayy         	sigmazz         
0.005           	3.07811080e-01	3.29434720e-01	1.00000000e+00	5.43772320e-01	0.00000000e+00
0.01            	1.98698740e-01	2.11155990e-01	4.51424770e-01	3.45470330e-01	0.00000000e+00
0.015           	4.96540110e-01	1.78981450e-01	2.61300860e-01	3.39389670e-01	0.00000000e+00
0.02            	2.42517790e-01	1.50171870e-01	1.84835180e-01	2.17845540e-01	0.00000000e+00
0.025           	1.41782440e-01	1.28306930e-01	1.42627250e-01	1.96060020e-01	0.00000000e+00
0.03            	1.89636430e-01	1.11575000e-01	1.15845880e-01	1.20278760e-01	0.00000000e+00
0.035           	1.92914730e-01	9.84623650e-02	9.74540050e-02	1.36816010e-01	0.00000000e+00
0.04            	6.70004790e-01	8.81370840e-02	8.40621190e-02	7.21868000e-02	0.00000000e+00
0.045           	1.13145900e-01	7.98338290e-02	7.38883070e-02	1.03467530e-01	0.00000000e+00
0.05            	1.57344830e-01	7.29266570e-02	6.59407080e-02	9.93720350e-02	0.00000000e+00
0.055           	5.24629640e-01	6.71179490e-02	5.95509250e-02	8.28123480e-02	0.00000000e+00
0.06            	2.25707620e-01	6.22136110e-02	5.43080610e-02	8.37311510e-02	0.00000000e+00
0.065           	2.20253530e-01	5.80208610e-02	4.99420290e-02	8.04319420e-02	0.00000000e+00
0.07            	3.86391120e-01	5.43936460e-02	4.62586130e-02	5.88759550e-02	0.00000000e+00
0.075           	1.33777270e-01	5.11899030e-02	4.30931130e-02	5.02121330e-02	0.00000000e+00
0.08            	1.94152180e-01	4.83535010e-02	4.03484070e-02	7.34559000e-02	0.00000000e+00
0.085           	1.83747870e-01	4.58273920e-02	3.79505880e-02	4.81308950e-02	0.00000000e+00
0.09            	2.21245760e-01	4.35729830e-02	3.58384020e-02	4.83490870e-02	0.00000000e+00
0.095           	1.40166340e-01	4.15487410e-02	3.39641090e-02	4.25524110e-02	0.00000000e+00
0.1             	1.33515430e-01	3.97211210e-02	3.22888590e-02	5.45529560e-02	0.00000000e+00
0.105           	1.05277440e-01	3.80472540e-02	3.07706370e-02	3.99485760e-02	0.00000000e+00
0.11            	2.96117710e-01	3.65170480e-02	2.93973530e-02	5.00301560e-02	0.00000000e+00
0.115           	5.78059880e-01	3.51167570e-02	2.81509140e-02	3.45731590e-02	0.00000000e+00
0.12            	3.82504010e-01	3.38194820e-02	2.70146520e-02	3.22492200e-02	0.00000000e+00
0.125           	2.29939200e-01	3.26212280e-02	2.59746820e-02	3.69525750e-02	0.00000000e+00
0.13            	3.16356590e-01	3.15132810e-02	2.50193430e-02	2.93080410e-02	0.00000000e+00
0.135           	2.37699090e-01	3.04857650e-02	2.41387750e-02	4.57795070e-02	0.00000000e+00
0.14            	2.65238430e-01	2.95301890e-02	2.33241920e-02	4.39925570e-02	0.00000000e+00
0.145           	1.20876400e-01	2.86344770e-02	2.25638870e-02	4.07780960e-02	0.00000000e+00
0.15            	1.77215310e-01	2.77917450e-02	2.18570060e-02	3.28770270e-02	0.00000000e+00
0.155           	1.34048930e-01	2.70024650e-02	2.11981460e-02	3.55422020e-02	0.00000000e+00
0.16            	1.91666850e-01	2.62616860e-02	2.05826070e-02	3.05643010e-02	0.00000000e+00
0.165           	2.31951330e-01	2.55650510e-02	2.00036440e-02	2.77835630e-02	0.00000000e+00
0.17            	1.55303620e-01	2.49067150e-02	1.94596730e-02	3.41783480e-02	0.00000000e+00
0.175           	1.32968560e-01	2.42805760e-02	1.89483310e-02	3.20275790e-02	0.00000000e+00
0.18            	3.53973450e-01	2.36887180e-02	1.84667870e-02	2.84178410e-02	0.00000000e+00
0.185           	1.84274970e-01	2.31283900e-02	1.80125290e-02	1.94357210e-02	0.00000000e+00
0.19            	2.86150310e-01	2.25971280e-02	1.75833190e-02	3.13367510e-02	0.00000000e+00
0.195           	3.04329670e-01	2.20927190e-02	1.71777570e-02	2.63949640e-02	0.00000000e+00
0.2             	1.83601860e-01	2.16104100e-02	1.67916970e-02	2.37164840e-02	0.00000000e+00
0.205           	2.66239060e-01	2.11485110e-02	1.64245310e-02	2.06957390e-02	0.00000000e+00
0.21            	1.76899630e-01	2.07083530e-02	1.60756920e-02	2.49921070e-02	0.00000000e+00
0.215           	1.77437020e-01	2.02884310e-02	1.57438540e-02	2.26017530e-02	0.00000000e+00
0.22            	1.90061940e-01	1.98873780e-02	1.54278140e-02	2.04199360e-02	0.00000000e+00
0.225           	1.32712110e-01	1.95039450e-02	1.51264800e-02	2.22669940e-02	0.00000000e+00
0.23            	1.25279860e-01	1.91369940e-02	1.48388580e-02	1.80252710e-02	0.00000000e+00
0.235           	3.04498400e-01	1.87854800e-02	1.45640410e-02	2.42685920e-02	0.00000000e+00
0.24            	1.73973810e-01	1.84475160e-02	1.43012010e-02	1.29562080e-02	0.00000000e+00
0.245           	1.31370920e-01	1.81205130e-02	1.40480290e-02	1.63843190e-02	0.00000000e+00
0.25            	1.64423500e-01	1.78064760e-02	1.38051330e-02	1.80267100e-02	0.00000000e+00
0.255           	1.63012670e-01	1.75046480e-02	1.35721980e-02	1.09888920e-02	0.00000000e+00
0.26            	1.23487530e-01	1.72143310e-02	1.33486290e-02	1.78025610e-02	0.00000000e+00
0.265           	1.40630470e-01	1.69348760e-02	1.31338770e-02	1.24421950e-02	0.00000000e+00
0.27            	2.87696330e-01	1.66653780e-02	1.29274950e-02	1.17075510e-02	0.00000000e+00
0.275           	1.41922360e-01	1.64028040e-02	1.27297590e-02	1.52052200e-02	0.00000000e+00
0.28            	4.64723980e-01	1.61495620e-02	1.25378230e-02	1.76973460e-02	0.00000000e+00
0.285           	1.77230700e-01	1.59051610e-02	1.23528740e-02	1.40130010e-02	0.00000000e+00
0.29            	4.48004840e-01	1.56691490e-02	1.21746060e-02	1.27530710e-02	0.00000000e+00
0.295           	5.39005060e-01	1.54411010e-02	1.20026670e-02	1.21396690e-02	0.00000000e+00
0.3             	3.20718100e-01	1.52206210e-02	1.18367290e-02	1.57048090e-02	0.00000000e+00
0.305           	5.79636750e-01	1.50073410e-02	1.16764890e-02	1.36698660e-02	0.00000000e+00
0.31            	3.35307300e-01	1.48009140e-02	1.15216620e-02	1.33543230e-02	0.00000000e+00
0.315           	3.45247680e-01	1.46010160e-02	1.13719800e-02	1.37261830e-02	0.00000000e+00
0.32            	1.94655770e-01	1.44073430e-02	1.12271960e-02	1.23602020e-02	0.00000000e+00
0.325           	5.65322560e-01	1.42196090e-02	1.10870750e-02	1.60387540e-02	0.00000000e+00
0.33            	3.59427670e-01	1.40375480e-02	1.09513990e-02	1.18131210e-02	0.00000000e+00
0.335           	1.36726290e-01	1.38591630e-02	1.08199620e-02	1.62786040e-02	0.00000000e+00
0.34            	2.18509540e-01	1.36857330e-02	1.06925710e-02	1.27305990e-02	0.00000000e+00
0.345           	1.20415730e-01	1.35173310e-02	1.05690440e-02	1.70818230e-02	0.00000000e+00
0.35            	1.87450890e-01	1.33537460e-02	1.04487070e-02	1.27688480e-02	0.00000000e+00
0.355           	3.91452970e-01	1.31947780e-02	1.03313660e-02	1.39256540e-02	0.00000000e+00
0.36            	1.31470530e-01	1.30402320e-02	1.02174390e-02	1.07098500e-02	0.00000000e+00
0.365           	4.33566750e-01	1.28891540e-02	1.01070760e-02	1.06599230e-02	0.00000000e+00
0.37            	1.64023740e-01	1.27411390e-02	1.00002670e-02	1.45686620e-02	0.00000000e+00
0.375           	1.15117600e-01	1.25970920e-02	9.89644920e-03	1.25307290e-02	0.00000000e+00
0.38            	2.69516680e-01	1.24568570e-02	9.79550180e-03	1.47850050e-02	0.00000000e+00
0.385           	3.32496840e-01	1.23202860e-02	9.69671070e-03	1.02924350e-02	0.00000000e+00
0.39            	6.23193560e-01	1.21872400e-02	9.60021780e-03	1.27609170e-02	0.00000000e+00
0.395           	1.46951770e-01	1.20575850e-02	9.50629570e-03	1.26266580e-02	0.00000000e+00
0.4             	1.33970230e-01	1.19311960e-02	9.41484490e-03	1.21678030e-02	0.00000000e+00
0.405           	2.82748420e-01	1.18079510e-02	9.32577090e-03	1.05972310e-02	0.00000000e+00
0.41            	1.12227370e-01	1.16877360e-02	9.23898390e-03	1.34933650e-02	0.00000000e+00
0.415           	4.59608750e-01	1.15704430e-02	9.15439840e-03	1.02603490e-02	0.00000000e+00
0.42            	1.50157280e-01	1.14559680e-02	9.07193320e-03	9.87718160e-03	0.00000000e+00
0.425           	3.29188240e-01	1.13442120e-02	8.99151100e-03	1.13611480e-02	0.00000000e+00
0.43            	1.27680150e-01	1.12350800e-02	8.91305800e-03	1.12840690e-02	0.00000000e+00
0.435           	1.81199130e-01	1.11284830e-02	8.83650400e-03	1.01526060e-02	0.00000000e+00
0.44            	1.94145520e-01	1.10243370e-02	8.76178200e-03	1.26897540e-02	0.00000000e+00
0.445           	1.31904560e-01	1.09225650e-02	8.68882800e-03	9.28190750e-03	0.00000000e+00
0.45            	1.28258650e-01	1.08227750e-02	8.61758110e-03	1.05525290e-02	0.00000000e+00
0.455           	1.89532580e-01	1.07243130e-02	8.54798290e-03	1.11314550e-02	0.00000000e+00
0.46            	2.21199410e-01	1.06280240e-02	8.47997760e-03	7.25704130e-03	0.00000000e+00
0.465           	1.60906900e-01	1.05338400e-02	8.41351200e-03	9.49963440e-03	0.00000000e+00
0.47            	1.50943600e-01	1.04416940e-02	8.34853520e-03	1.01313440e-02	0.00000000e+00
0.475           	1.94640930e-01	1.03515210e-02	8.28499820e-03	1.02345320e-02	0.00000000e+00
0.48            	2.77594280e-01	1.02632600e-02	8.22285430e-03	7.09842250e-03	0.00000000e+00
0.485           	1.56932010e-01	1.01761790e-02	8.16205880e-03	9.95131910e-03	0.00000000e+00
0.49            	1.94650970e-01	1.00904850e-02	8.10242370e-03	9.30679930e-03	0.00000000e+00
0.495           	1.73242970e-01	1.00065620e-02	8.04357610e-03	9.14336430e-03	0.00000000e+00
0.5             	1.91695640e-01	9.92416700e-03	7.98596770e-03	8.82778430e-03	0.00000000e+00
0.505           	3.51147940e-01	9.84360640e-03	7.92956030e-03	8.66270430e-03	0.00000000e+00
0.51            	2.10766050e-01	9.76471480e-03	7.87431680e-03	8.49243400e-03	0.00000000e+00
0.515           	1.69796400e-01	9.68740780e-03	7.82020200e-03	9.22123300e-03	0.00000000e+00
0.52            	2.97951080e-01	9.61179850e-03	7.76718190e-03	9.35696960e-03	0.00000000e+00
0.525           	1.56878150e-01	9.53752620e-03	7.71539210e-03	8.31062040e-03	0.00000000e+00
0.53            	1.72039810e-01	9.46464180e-03	7.66442130e-03	8.46480060e-03	0.00000000e+00
0.535           	2.57759620e-01	9.39313880e-03	7.61448350e-03	8.42958050e-03	0.00000000e+00
0.54            	4.59771480e-01	9.32299240e-03	7.56553160e-03	8.13629100e-03	0.00000000e+00
0.545           	1.49278830e-01	9.25401900e-03	7.51753170e-03	4.96015590e-03	0.00000000e+00
0.55            	6.57065470e-01	9.18646660e-03	7.47045460e-03	8.77858520e-03	0.00000000e+00
0.555           	2.87395920e-01	9.12020980e-03	7.42427360e-03	7.46031770e-03	0.00000000e+00
0.56            	1.50313510e-01	9.05518590e-03	7.37896340e-03	5.92309320e-03	0.00000000e+00
0.565           	2.22988100e-01	8.99135310e-03	7.33449950e-03	7.08399990e-03	0.00000000e+00
0.57            	9.58546540e-01	8.92867720e-03	7.29085850e-03	6.77521620e-03	0.00000000e+00
0.575           	6.27673000e-01	8.86726060e-03	7.24803840e-03	6.16807550e-03	0.00000000e+00
0.58            	1.73069990e-01	8.80683090e-03	7.20597460e-03	9.70766760e-03	0.00000000e+00
0.585           	1.43150840e-01	8.74743510e-03	7.16466130e-03	1.20677600e-02	0.00000000e+00
0.59            	1.78431170e-01	8.68907010e-03	7.12408300e-03	1.02608690e-02	0.00000000e+00
0.595           	2.88945050e-01	8.63171770e-03	7.08422180e-03	8.35148500e-03	0.00000000e+00
0.6             	7.21907260e-01	8.57487000e-03	7.04505920e-03	8.14837190e-03	0.00000000e+00
0.605           	1.67052380e-01	8.51862730e-03	7.00657690e-03	9.35330770e-03	0.00000000e+00
0.61            	2.09670780e-01	8.46343920e-03	6.96875720e-03	9.39284150e-03	0.00000000e+00
0.615           	1.29064310e-01	8.40921550e-03	6.93158310e-03	8.79246070e-03	0.00000000e+00
0.62            	1.20266530e-01	8.35591220e-03	6.89503770e-03	1.04948280e-02	0.00000000e+00
0.625           	1.20546250e-01	8.30349630e-03	6.85908600e-03	1.15001700e-02	0.00000000e+00
0.63            	5.66904310e-01	8.25194780e-03	6.82375060e-03	7.76893710e-03	0.00000000e+00
0.635           	2.21546630e-01	8.20066850e-03	6.78900320e-03	4.67003380e-03	0.00000000e+00
0.64            	1.79980310e-01	8.15020890e-03	6.75482500e-03	1.02178980e-02	0.00000000e+00
0.645           	1.02739810e-01	8.10048630e-03	6.72120050e-03	1.01153330e-02	0.00000000e+00
0.65            	2.48065260e-01	8.05153960e-03	6.68823490e-03	4.58725460e-03	0.00000000e+00
0.655           	2.88478570e-01	8.00336900e-03	6.65589120e-03	6.86945690e-03	0.00000000e+00
0.66            	3.71670440e-01	7.95596270e-03	6.62405830e-03	6.79500700e-03	0.00000000e+00
0.665           	1.28701720e-01	7.90930540e-03	6.59272390e-03	8.24883200e-03	0.00000000e+00
0.67            	1.86469130e-01	7.86319250e-03	6.56187580e-03	8.37912560e-03	0.00000000e+00
0.675           	1.51576300e-01	7.81795400e-03	6.53136300e-03	6.45316660e-03	0.00000000e+00
0.68            	3.26747600e-01	7.77356560e-03	6.50111610e-03	7.11761100e-03	0.00000000e+00
0.685           	2.79638790e-01	7.72979690e-03	6.47129040e-03	6.89527270e-03	0.00000000e+00
0.69            	1.78699530e-01	7.68667610e-03	6.44190020e-03	7.81883460e-03	0.00000000e+00
0.695           	5.57693760e-01	7.64420260e-03	6.41294340e-03	6.08525580e-03	0.00000000e+00
0.7             	1.87205970e-01	7.60244270e-03	6.38441240e-03	5.60756950e-03	0.00000000e+00
0.705           	1.56420900e-01	7.56124490e-03	6.35629830e-03	4.50718460e-03	0.00000000e+00
0.71            	1.86086530e-01	7.52063970e-03	6.32856220e-03	6.68309730e-03	0.00000000e+00
0.715           	6.16070070e-01	7.48062840e-03	6.30088750e-03	3.86934870e-03	0.00000000e+00
0.72            	1.27774850e-01	7.44120300e-03	6.27360770e-03	8.38296340e-03	0.00000000e+00
0.725           	4.81104950e-01	7.40235280e-03	6.24671380e-03	7.14606560e-03	0.00000000e+00
0.73            	1.31652970e-01	7.36391760e-03	6.22019710e-03	6.90417420e-03	0.00000000e+00
0.735           	1.90344870e-01	7.32623720e-03	6.19404900e-03	7.08814000e-03	0.00000000e+00
0.74            	5.94689230e-01	7.28907100e-03	6.16826130e-03	5.64216940e-03	0.00000000e+00
0.745           	1.67791190e-01	7.25242330e-03	6.14278400e-03	6.35272820e-03	0.00000000e+00
0.75            	2.32862730e-01	7.21629080e-03	6.11768290e-03	5.89470260e-03	0.00000000e+00
0.755           	1.67437890e-01	7.18066530e-03	6.09292900e-03	5.85221140e-03	0.00000000e+00
0.76            	1.63404310e-01	7.14553730e-03	6.06850790e-03	5.71896120e-03	0.00000000e+00
0.765           	1.06324360e-01	7.11089700e-03	6.04440990e-03	7.42271700e-03	0.00000000e+00
0.77            	1.26846230e-01	7.07673500e-03	6.02062730e-03	6.82365230e-03	0.00000000e+00
0.775           	1.11913980e-01	7.04304180e-03	5.99715290e-03	5.46871320e-03	0.00000000e+00
0.78            	1.63019460e-01	7.00969230e-03	5.97398000e-03	6.76913120e-03	0.00000000e+00
0.785           	1.39052440e-01	6.97642840e-03	5.95110200e-03	7.35555050e-03	0.00000000e+00
0.79            	1.09459870e-01	6.94354990e-03	5.92851250e-03	7.08065040e-03	0.00000000e+00
0.795           	1.44039540e-01	6.91116390e-03	5.90620540e-03	4.33698240e-03	0.00000000e+00
0.8             	1.43275550e-01	6.87922650e-03	5.88417470e-03	6.50957290e-03	0.00000000e+00
0.805           	1.62065360e-01	6.84771770e-03	5.86241440e-03	6.29002540e-03	0.00000000e+00
0.81            	1.62238010e-01	6.81662680e-03	5.84095560e-03	4.29298290e-03	0.00000000e+00
0.815           	2.17264030e-01	6.78583770e-03	5.81964370e-03	4.58072310e-03	0.00000000e+00
0.82            	4.61307740e-01	6.75509580e-03	5.79863940e-03	5.02236290e-03	0.00000000e+00
0.825           	8.23747800e-02	6.72475250e-03	5.77790110e-03	3.87398510e-03	0.00000000e+00
0.83            	2.11833510e-01	6.69480050e-03	5.75741190e-03	4.46787350e-03	0.00000000e+00
0.835           	1.21204600e-01	6.66523270e-03	5.73716270e-03	5.33280740e-03	0.00000000e+00
0.84            	1.53123250e-01	6.63604180e-03	5.71714720e-03	6.01665120e-03	0.00000000e+00
0.845           	1.94113040e-01	6.60722090e-03	5.69736030e-03	5.31027200e-03	0.00000000e+00
0.85            	3.14893220e-01	6.57876330e-03	5.67779700e-03	6.88287790e-03	0.00000000e+00
0.855           	1.64516700e-01	6.55066220e-03	5.65845270e-03	8.10298670e-03	0.00000000e+00
0.86            	1.18677910e-01	6.52285100e-03	5.63932300e-03	4.47320010e-03	0.00000000e+00
0.865           	1.48432400e-01	6.49543150e-03	5.62040330e-03	5.09288940e-03	0.00000000e+00
0.87            	5.24183440e-01	6.46836480e-03	5.60168960e-03	5.69264860e-03	0.00000000e+00
0.875           	1.44825710e-01	6.44163410e-03	5.58317750e-03	5.15667110e-03	0.00000000e+00
0.88            	2.32281100e-01	6.41523090e-03	5.56490560e-03	5.57805420e-03	0.00000000e+00
0.885           	9.58201780e-02	6.38914790e-03	5.54679640e-03	4.32260790e-03	0.00000000e+00
0.89            	1.22235260e-01	6.36337860e-03	5.52886660e-03	5.57761490e-03	0.00000000e+00
0.895           	2.19929610e-01	6.33791730e-03	5.51115040e-03	4.57608850e-03	0.00000000e+00
0.9             	1.15988430e-01	6.31275910e-03	5.49359250e-03	4.14316960e-03	0.00000000e+00
0.905           	1.18146240e-01	6.28789790e-03	5.47620540e-03	5.66432490e-03	0.00000000e+00
0.91            	1.87227600e-01	6.26332840e-03	5.45899080e-03	4.29207360e-03	0.00000000e+00
0.915           	1.23193590e-01	6.23904530e-03	5.44175760e-03	5.30111490e-03	0.00000000e+00
0.92            	1.12181640e-01	6.21504370e-03	5.42463450e-03	4.67196210e-03	0.00000000e+00
0.925           	2.11217400e-01	6.19131650e-03	5.40755860e-03	5.13638860e-03	0.00000000e+00
0.93            	1.10347770e-01	6.16785960e-03	5.39073430e-03	4.68712330e-03	0.00000000e+00
0.935           	1.54325390e-01	6.14471730e-03	5.37410000e-03	5.78340130e-03	0.00000000e+00
0.94            	4.84488680e-01	6.12183820e-03	5.35763350e-03	3.87500710e-03	0.00000000e+00
0.945           	6.70710100e-01	6.09917430e-03	5.34132510e-03	5.25013720e-03	0.00000000e+00
0.95            	3.95077820e-01	6.07675040e-03	5.32515230e-03	5.13797610e-03	0.00000000e+00
0.955           	1.83841100e-01	6.05443610e-03	5.30890730e-03	5.85019500e-03	0.00000000e+00
0.96            	2.58963590e-01	6.03247310e-03	5.29281130e-03	4.06888310e-03	0.00000000e+00
0.965           	2.08447610e-01	6.01078640e-03	5.27690980e-03	5.84162390e-03	0.00000000e+00
0.97            	2.54117260e-01	5.98934830e-03	5.26111720e-03	4.44427720e-03	0.00000000e+00
0.975           	2.08071120e-01	5.96814660e-03	5.24545350e-03	4.39107370e-03	0.00000000e+00
0.98            	1.32283940e-01	5.94717480e-03	5.22995920e-03	4.07667580e-03	0.00000000e+00
0.985           	3.51958210e-01	5.92642880e-03	5.21457350e-03	4.44353250e-03	0.00000000e+00
0.99            	1.43727420e-01	5.90590400e-03	5.19931160e-03	5.93236460e-03	0.00000000e+00
0.995           	1.27890660e-01	5.88564520e-03	5.18417690e-03	5.10443670e-03	0.00000000e+00
1               	1.81534920e-01	5.86554490e-03	5.16916870e-03	5.09909770e-03	0.00000000e+00
1.005           	3.19934640e-01	5.84533580e-03	5.15431070e-03	4.73312250e-03	0.00000000e+00
1.01            	1.96529400e-01	5.82533350e-03	5.13955720e-03	4.01560510e-03	0.00000000e+00
1.015           	1.40304590e-01	5.80557390e-03	5.12491810e-03	4.36659470e-03	0.00000000e+00
1.02            	2.49866490e-01	5.78601840e-03	5.11039510e-03	5.01710390e-03	0.00000000e+00
1.025           	2.69161880e-01	5.76662960e-03	5.09598740e-03	4.76370520e-03	0.00000000e+00
1.03            	4.92940160e-01	5.74742700e-03	5.08169330e-03	4.53167320e-03	0.00000000e+00
1.035           	3.21297270e-01	5.72841470e-03	5.06751070e-03	3.89936590e-03	0.00000000e+00
1.04            	2.63892160e-01	5.70934920e-03	5.05343750e-03	4.00125010e-03	0.00000000e+00
1.045           	1.11944220e-01	5.69040700e-03	5.03947190e-03	3.74481230e-03	0.00000000e+00
1.05            	2.91069150e-01	5.67165260e-03	5.02561160e-03	4.28238970e-03	0.00000000e+00
1.055           	1.75559680e-01	5.65308230e-03	5.01176040e-03	4.35360770e-03	0.00000000e+00
1.06            	1.74207110e-01	5.63469290e-03	4.99807770e-03	5.67303870e-03	0.00000000e+00
1.065           	1.29524900e-01	5.61648220e-03	4.98451690e-03	4.18688210e-03	0.00000000e+00
1.07            	1.95059730e-01	5.59844830e-03	4.97110080e-03	4.39996040e-03	0.00000000e+00
1.075           	1.67490500e-01	5.58058780e-03	4.95775500e-03	3.17080910e-03	0.00000000e+00
1.08            	2.81278400e-01	5.56291880e-03	4.94449490e-03	3.80841470e-03	0.00000000e+00
1.085           	1.69538950e-01	5.54528730e-03	4.93132420e-03	4.30107480e-03	0.00000000e+00
1.09            	1.91396800e-01	5.52790410e-03	4.91824310e-03	4.23787390e-03	0.00000000e+00
1.095           	1.22383270e-01	5.51071050e-03	4.90527900e-03	3.61596460e-03	0.00000000e+00
1.1             	1.34773840e-01	5.49368530e-03	4.89238190e-03	3.51341500e-03	0.00000000e+00
1.105           	3.63739370e-01	5.47681980e-03	4.87956360e-03	3.32845470e-03	0.00000000e+00
1.11            	1.69562780e-01	5.46017240e-03	4.86682700e-03	2.68376520e-03	0.00000000e+00
1.115           	1.82742910e-01	5.44362800e-03	4.85417200e-03	2.04690180e-03	0.00000000e+00
1.12            	1.72091240e-01	5.42721680e-03	4.84159770e-03	2.66620970e-03	0.00000000e+00
1.125           	2.11879440e-01	5.41094720e-03	4.82910270e-03	2.66065000e-03	0.00000000e+00
1.13            	5.16993230e-01	5.39482040e-03	4.81668550e-03	3.27001620e-03	0.00000000e+00
1.135           	1.87397710e-01	5.37883510e-03	4.80434480e-03	3.32413670e-03	0.00000000e+00
1.14            	1.37162720e-01	5.36298960e-03	4.79207900e-03	3.04947960e-03	0.00000000e+00
1.145           	3.77199070e-01	5.34730250e-03	4.77988690e-03	3.51540760e-03	0.00000000e+00
1.15            	2.70030890e-01	5.33173350e-03	4.76766170e-03	4.05478820e-03	0.00000000e+00
1.155           	1.07338100e-01	5.31629160e-03	4.75558130e-03	3.54818180e-03	0.00000000e+00
1.16            	3.41455820e-01	5.30097870e-03	4.74359500e-03	3.00218990e-03	0.00000000e+00
1.165           	1.27388150e-01	5.28579480e-03	4.73172920e-03	3.27055910e-03	0.00000000e+00
1.17            	4.86214120e-01	5.27073790e-03	4.71990230e-03	2.37185640e-03	0.00000000e+00
1.175           	1.61602020e-01	5.25580610e-03	4.70813170e-03	4.05354280e-03	0.00000000e+00
1.18            	1.85662190e-01	5.24099710e-03	4.69642260e-03	3.25210500e-03	0.00000000e+00
1.185           	3.42730810e-01	5.22630910e-03	4.68477570e-03	2.63722610e-03	0.00000000e+00
1.19            	1.19395850e-01	5.21175530e-03	4.67319050e-03	3.65162980e-03	0.00000000e+00
1.195           	7.19374350e-01	5.19730690e-03	4.66169760e-03	3.07346790e-03	0.00000000e+00
1.2             	1.83913720e-01	5.18297000e-03	4.65024240e-03	3.26560610e-03	0.00000000e+00
1.205           	1.19702340e-01	5.16874510e-03	4.63883860e-03	2.82147570e-03	0.00000000e+00
1.21            	4.31680270e-01	5.15463130e-03	4.62748990e-03	3.02548730e-03	0.00000000e+00
1.215           	2.80845590e-01	5.14062700e-03	4.61613050e-03	3.08194950e-03	0.00000000e+00
1.22            	2.89794640e-01	5.12673050e-03	4.60472690e-03	3.50672980e-03	0.00000000e+00
1.225           	1.41964410e-01	5.11273460e-03	4.59337920e-03	2.74585950e-03	0.00000000e+00
1.23            	4.20363630e-01	5.09899830e-03	4.58208650e-03	3.25267550e-03	0.00000000e+00
1.235           	1.46904680e-01	5.08541550e-03	4.57084760e-03	2.90365330e-03	0.00000000e+00
1.24            	3.68273550e-01	5.07195000e-03	4.55966170e-03	3.26627260e-03	0.00000000e+00
1.245           	1.83804280e-01	5.05858880e-03	4.54852770e-03	2.92723760e-03	0.00000000e+00
1.25            	4.75662990e-01	5.04537650e-03	4.53737880e-03	3.39575750e-03	0.00000000e+00
1.255           	1.44228950e-01	5.03222270e-03	4.52627950e-03	3.40174320e-03	0.00000000e+00
1.26            	2.32537190e-01	5.01915070e-03	4.51513070e-03	3.00857330e-03	0.00000000e+00
1.265           	1.46871420e-01	5.00629210e-03	4.50403680e-03	2.96961040e-03	0.00000000e+00
1.27            	1.09612890e-01	4.99327610e-03	4.49299330e-03	4.01866850e-03	0.00000000e+00
1.275           	1.80941640e-01	4.98025080e-03	4.48199830e-03	3.34968870e-03	0.00000000e+00
1.28            	1.00273360e-01	4.96730590e-03	4.47105060e-03	3.69565170e-03	0.00000000e+00
1.285           	1.83773310e-01	4.95444670e-03	4.46014900e-03	3.17667530e-03	0.00000000e+00
1.29            	1.76260640e-01	4.94167430e-03	4.44929280e-03	3.35896520e-03	0.00000000e+00
1.295           	1.97650400e-01	4.92898820e-03	4.43851570e-03	3.05331880e-03	0.00000000e+00
1.3             	3.15007280e-01	4.91639840e-03	4.42775820e-03	2.95881620e-03	0.00000000e+00
1.305           	3.83013490e-01	4.90387270e-03	4.41703560e-03	2.87715280e-03	0.00000000e+00
1.31            	3.06066180e-01	4.89122400e-03	4.40635240e-03	2.85057920e-03	0.00000000e+00
1.315           	1.58835990e-01	4.87865730e-03	4.39570960e-03	2.67830660e-03	0.00000000e+00
1.32            	1.38851070e-01	4.86617190e-03	4.38510710e-03	2.85370640e-03	0.00000000e+00
1.325           	2.87479090e-01	4.85376660e-03	4.37454420e-03	3.17152430e-03	0.00000000e+00
1.33            	1.35813760e-01	4.84122600e-03	4.36402040e-03	4.06372450e-03	0.00000000e+00
1.335           	1.98085670e-01	4.82892160e-03	4.35346050e-03	2.92069590e-03	0.00000000e+00
1.34            	1.47778360e-01	4.81674580e-03	4.34298970e-03	2.93022640e-03	0.00000000e+00
1.345           	2.81612010e-01	4.80466200e-03	4.33257300e-03	3.44957770e-03	0.00000000e+00
1.35            	1.68022080e-01	4.79265730e-03	4.32219820e-03	3.40912610e-03	0.00000000e+00
1.355           	1.16514720e-01	4.78072670e-03	4.31186090e-03	1.93290860e-03	0.00000000e+00
1.36            	3.18413770e-01	4.76886770e-03	4.30155920e-03	3.12063720e-03	0.00000000e+00
1.365           	1.04249300e-01	4.75713030e-03	4.29129200e-03	2.60833350e-03	0.00000000e+00
1.37            	1.11157140e-01	4.74542430e-03	4.28105860e-03	2.38105550e-03	0.00000000e+00
1.375           	2.15450050e-01	4.73377340e-03	4.27085810e-03	1.48696740e-03	0.00000000e+00
1.38            	1.53346090e-01	4.72218510e-03	4.26069010e-03	2.05167100e-03	0.00000000e+00
1.385           	3.86341360e-01	4.71066070e-03	4.25055390e-03	2.24745690e-03	0.00000000e+00
1.39            	1.61281260e-01	4.69920030e-03	4.24044890e-03	2.45929320e-03	0.00000000e+00
1.395           	2.81368350e-01	4.68780330e-03	4.23041220e-03	3.00746050e-03	0.00000000e+00
1.4             	1.73844490e-01	4.67646850e-03	4.22037960e-03	2.37654000e-03	0.00000000e+00
1.405           	1.39973140e-01	4.66519500e-03	4.21036790e-03	2.11194270e-03	0.00000000e+00
1.41            	1.61188990e-01	4.65398160e-03	4.20038220e-03	2.03557630e-03	0.00000000e+00
1.415           	1.62810300e-01	4.64282740e-03	4.19042400e-03	2.54796160e-03	0.00000000e+00
1.42            	8.57219060e-02	4.63173120e-03	4.18049340e-03	2.81873050e-03	0.00000000e+00
1.425           	1.19713020e-01	4.62069230e-03	4.17059010e-03	2.92997410e-03	0.00000000e+00
1.43            	1.30974510e-01	4.60970940e-03	4.16071360e-03	2.47167570e-03	0.00000000e+00
1.435           	4.07903730e-01	4.59878180e-03	4.15086340e-03	2.47946410e-03	0.00000000e+00
1.44            	1.38272120e-01	4.58790850e-03	4.14103920e-03	2.68899890e-03	0.00000000e+00
1.445           	1.59035210e-01	4.57708840e-03	4.13129990e-03	2.76721180e-03	0.00000000e+00
1.45            	2.29119810e-01	4.56635390e-03	4.12154420e-03	2.78434670e-03	0.00000000e+00
1.455           	9.80156310e-02	4.55564740e-03	4.11179930e-03	2.95861300e-03	0.00000000e+00
1.46            	1.64360050e-01	4.54498390e-03	4.10207390e-03	2.65880790e-03	0.00000000e+00
1.465           	2.37453690e-01	4.53436770e-03	4.09237040e-03	3.25189000e-03	0.00000000e+00
1.47            	1.16850160e-01	4.52379960e-03	4.08268970e-03	3.24343260e-03	0.00000000e+00
1.475           	1.20205180e-01	4.51327810e-03	4.07290130e-03	2.55768310e-03	0.00000000e+00
1.48            	8.95940190e-02	4.50280370e-03	4.06322510e-03	2.74312930e-03	0.00000000e+00
1.485           	1.22690790e-01	4.49237560e-03	4.05360070e-03	3.52879060e-03	0.00000000e+00
1.49            	1.19233890e-01	4.48199350e-03	4.04404880e-03	3.11398810e-03	0.00000000e+00
1.495           	1.36561380e-01	4.47165650e-03	4.03449320e-03	3.79840260e-03	0.00000000e+00
1.5             	1.54286040e-01	4.46136380e-03	4.02495000e-03	3.34751210e-03	0.00000000e+00
1.505           	3.17130540e-01	4.45113590e-03	4.01542430e-03	3.60263680e-03	0.00000000e+00
1.51            	2.60232850e-01	4.44093490e-03	4.00591770e-03	3.10364550e-03	0.00000000e+00
1.515           	1.83296840e-01	4.43077070e-03	3.99643040e-03	3.09042190e-03	0.00000000e+00
1.52            	1.64850320e-01	4.42064600e-03	3.98696220e-03	2.41525320e-03	0.00000000e+00
1.525           	1.01861320e-01	4.41056120e-03	3.97751290e-03	3.21020510e-03	0.00000000e+00
1.53            	1.56712000e-01	4.40051660e-03	3.96813170e-03	3.17264190e-03	0.00000000e+00
1.535           	1.78039910e-01	4.39031830e-03	3.95875040e-03	2.51929980e-03	0.00000000e+00
1.54            	2.94467710e-01	4.38029680e-03	3.94936440e-03	3.11627220e-03	0.00000000e+00
1.545           	1.43346290e-01	4.37035850e-03	3.93998840e-03	2.37970520e-03	0.00000000e+00
1.55            	1.42783000e-01	4.36047210e-03	3.93062710e-03	3.28393800e-03	0.00000000e+00
1.555           	1.90378850e-01	4.35062680e-03	3.92128180e-03	2.74448380e-03	0.00000000e+00
1.56            	2.21893040e-01	4.34081850e-03	3.91195280e-03	2.27725630e-03	0.00000000e+00
1.565           	2.18283410e-01	4.33104560e-03	3.90264000e-03	2.56968200e-03	0.00000000e+00
1.57            	1.46740120e-01	4.32130700e-03	3.89334320e-03	2.24370220e-03	0.00000000e+00
1.575           	1.37522240e-01	4.31160200e-03	3.88407300e-03	2.94902530e-03	0.00000000e+00
1.58            	1.26387170e-01	4.30193010e-03	3.87481060e-03	2.46798080e-03	0.00000000e+00
1.585           	3.99646850e-01	4.29229050e-03	3.86556080e-03	2.65061050e-03	0.00000000e+00
1.59            	1.30594780e-01	4.28268260e-03	3.85628530e-03	2.15288900e-03	0.00000000e+00
1.595           	5.24108970e-01	4.27300160e-03	3.84695410e-03	2.92399750e-03	0.00000000e+00
1.6             	1.29535990e-01	4.26330700e-03	3.83764600e-03	2.93399850e-03	0.00000000e+00
1.605           	1.35655940e-01	4.25364380e-03	3.82834750e-03	2.27445310e-03	0.00000000e+00
1.61            	1.47214630e-01	4.24401150e-03	3.81906190e-03	3.03318090e-03	0.00000000e+00
1.615           	4.08894980e-01	4.23440940e-03	3.80979030e-03	2.64662520e-03	0.00000000e+00
1.62            	2.08671570e-01	4.22483590e-03	3.80033670e-03	2.23467850e-03	0.00000000e+00