# Probe 0 (0 1 0)
#         Probe               0
#          Time
          0.005               (0.016432962 -7.3692077e-22 0)
           0.01               (0.038312661 4.1444364e-21 0)
          0.015               (0.062029904 -1.3071685e-20 0)
           0.02               (0.086383192 -3.4822287e-20 0)
          0.025               (0.11096731 -1.0290361e-20 0)
           0.03               (0.13564299 -7.6480005e-21 0)
          0.035               (0.16036081 -7.188676e-21 0)
           0.04               (0.18510219 6.6376841e-20 0)
          0.045               (0.20985942 2.5685888e-20 0)
           0.05               (0.23462882 3.3415043e-20 0)
          0.055               (0.25940828 6.50206e-21 0)
           0.06               (0.28419643 -7.011613e-20 0)
          0.065               (0.30899227 -8.3898188e-20 0)
           0.07               (0.333795 -1.072327e-19 0)
          0.075               (0.35860398 -1.1869027e-19 0)
           0.08               (0.38341867 -1.643212e-19 0)
          0.085               (0.40823862 -4.1911826e-20 0)
           0.09               (0.43306342 -6.453904e-20 0)
          0.095               (0.45789274 -5.4653798e-20 0)
            0.1               (0.48272626 1.4945608e-20 0)
          0.105               (0.50756371 1.975534e-19 0)
           0.11               (0.53240485 3.0147778e-19 0)
          0.115               (0.55724946 3.6110394e-19 0)
           0.12               (0.58209734 4.0703671e-19 0)
          0.125               (0.60694828 5.5451456e-19 0)
           0.13               (0.63180212 6.2984715e-19 0)
          0.135               (0.65665868 6.3027268e-19 0)
           0.14               (0.68151779 7.1579465e-19 0)
          0.145               (0.7063793 7.2854811e-19 0)
           0.15               (0.73124304 5.6191226e-19 0)
          0.155               (0.75610885 4.5332633e-19 0)
           0.16               (0.78097659 3.0313061e-19 0)
          0.165               (0.80584609 1.0768657e-20 0)
           0.17               (0.8307172 -8.0953007e-20 0)
          0.175               (0.85558978 -1.8968962e-19 0)
           0.18               (0.88046365 -1.4086975e-19 0)
          0.185               (0.90533869 -2.2860525e-19 0)
           0.19               (0.93021472 -1.8684307e-19 0)
          0.195               (0.95509161 -1.1367504e-19 0)
            0.2               (0.97996919 -7.3325023e-21 0)
          0.205               (1.0048473 5.131733e-20 0)
           0.21               (1.0297259 2.7341728e-19 0)
          0.215               (1.0546047 2.3716242e-19 0)
           0.22               (1.0794836 -1.4720397e-19 0)
          0.225               (1.1043625 -2.6337496e-19 0)
           0.23               (1.1292412 -2.9170121e-19 0)
          0.235               (1.1541196 -4.438568e-19 0)
           0.24               (1.1789975 -6.8341176e-19 0)
          0.245               (1.2038749 -5.6792532e-19 0)
           0.25               (1.2287514 -2.1917218e-21 0)
          0.255               (1.2536271 3.0220541e-19 0)
           0.26               (1.2785018 5.2485581e-19 0)
          0.265               (1.3033752 4.2067293e-19 0)
           0.27               (1.3282473 5.4798742e-19 0)
          0.275               (1.3531179 6.6512106e-19 0)
           0.28               (1.3779869 1.2014273e-18 0)
          0.285               (1.4028541 1.8327129e-18 0)
           0.29               (1.4277194 1.7898756e-18 0)
          0.295               (1.4525825 1.8738771e-18 0)
            0.3               (1.4774433 1.75943e-18 0)
          0.305               (1.5023018 1.8802674e-18 0)
           0.31               (1.5271575 2.2661798e-18 0)
          0.315               (1.5520105 2.7145709e-18 0)
           0.32               (1.5768606 2.7435336e-18 0)
          0.325               (1.6017074 2.6533089e-18 0)
           0.33               (1.6265509 2.4655741e-18 0)
          0.335               (1.6513908 2.2631593e-18 0)
           0.34               (1.676227 2.2559193e-18 0)
          0.345               (1.7010592 2.0120405e-18 0)
           0.35               (1.7258872 1.904927e-18 0)
          0.355               (1.7507109 2.0390871e-18 0)
           0.36               (1.7755298 1.9418386e-18 0)
          0.365               (1.8003439 1.9698887e-18 0)
           0.37               (1.8251529 2.0751196e-18 0)
          0.375               (1.8499565 1.8263929e-18 0)
           0.38               (1.8747545 1.5415741e-18 0)
          0.385               (1.8995467 1.5162673e-18 0)
           0.39               (1.9243326 1.552258e-18 0)
          0.395               (1.9491122 1.8899244e-18 0)
            0.4               (1.973885 1.9241305e-18 0)
          0.405               (1.9986508 2.2817709e-18 0)
           0.41               (2.0234093 2.4055707e-18 0)
          0.415               (2.0481602 2.3749125e-18 0)
           0.42               (2.0729032 2.6609843e-18 0)
          0.425               (2.0976379 2.7536251e-18 0)
           0.43               (2.122364 2.5829267e-18 0)
          0.435               (2.1470812 2.5297631e-18 0)
           0.44               (2.1717892 2.5764567e-18 0)
          0.445               (2.1964876 2.4314703e-18 0)
           0.45               (2.221176 2.6239699e-18 0)
          0.455               (2.2458541 2.7998043e-18 0)
           0.46               (2.2705215 2.8044878e-18 0)
          0.465               (2.2951778 2.5896526e-18 0)
           0.47               (2.3198226 2.6007318e-18 0)
          0.475               (2.3444556 2.635528e-18 0)
           0.48               (2.3690764 2.6507369e-18 0)
          0.485               (2.3936845 2.8656759e-18 0)
           0.49               (2.4182796 2.8599045e-18 0)
          0.495               (2.4428612 3.295524e-18 0)
            0.5               (2.4674289 3.4124932e-18 0)
          0.505               (2.4919823 3.4006932e-18 0)
           0.51               (2.5165209 3.6057451e-18 0)
          0.515               (2.5410444 3.2213564e-18 0)
           0.52               (2.5655522 2.7823904e-18 0)
          0.525               (2.5900439 2.2037668e-18 0)
           0.53               (2.6145191 2.3488179e-18 0)
          0.535               (2.6389774 2.557327e-18 0)
           0.54               (2.6634182 2.7118832e-18 0)
          0.545               (2.6878411 3.1416728e-18 0)
           0.55               (2.7122456 3.416647e-18 0)
          0.555               (2.7366312 3.4711549e-18 0)
           0.56               (2.7609975 3.8066509e-18 0)
          0.565               (2.7853439 4.2794092e-18 0)
           0.57               (2.8096699 4.7654387e-18 0)
          0.575               (2.8339751 4.8000319e-18 0)
           0.58               (2.8582589 5.1593262e-18 0)
          0.585               (2.8825208 4.9205852e-18 0)
           0.59               (2.9067603 4.4036084e-18 0)
          0.595               (2.9309768 3.9036104e-18 0)
            0.6               (2.95517 3.8451081e-18 0)
          0.605               (2.9793393 4.0350817e-18 0)
           0.61               (3.0034841 3.9374121e-18 0)
          0.615               (3.027604 3.4743417e-18 0)
           0.62               (3.0516983 2.5355901e-18 0)
          0.625               (3.0757667 2.8004825e-18 0)
           0.63               (3.0998086 2.7825353e-18 0)
          0.635               (3.1238234 3.1737455e-18 0)
           0.64               (3.1478106 3.4368812e-18 0)
          0.645               (3.1717697 4.587721e-18 0)
           0.65               (3.1957001 5.4768361e-18 0)
          0.655               (3.2196012 5.9096456e-18 0)
           0.66               (3.2434726 6.346299e-18 0)
          0.665               (3.2673137 6.9473626e-18 0)
           0.67               (3.2911239 7.2113482e-18 0)
          0.675               (3.3149027 7.0617656e-18 0)
           0.68               (3.3386495 7.98766e-18 0)
          0.685               (3.3623637 7.6003009e-18 0)
           0.69               (3.3860449 7.6462009e-18 0)
          0.695               (3.4096923 7.2810027e-18 0)
            0.7               (3.4333056 7.6569265e-18 0)
          0.705               (3.4568841 7.7608222e-18 0)
           0.71               (3.4804274 7.3166662e-18 0)
          0.715               (3.5039347 6.5656797e-18 0)
           0.72               (3.5274057 5.5796382e-18 0)
          0.725               (3.5508397 5.0063944e-18 0)
           0.73               (3.5742362 4.6219606e-18 0)
          0.735               (3.5975946 2.8763259e-18 0)
           0.74               (3.6209144 2.4991096e-18 0)
          0.745               (3.6441951 2.2983573e-18 0)
           0.75               (3.6674361 2.3327179e-18 0)
          0.755               (3.6906368 2.8312956e-18 0)
           0.76               (3.7137967 2.5203759e-18 0)
          0.765               (3.7369152 1.4908644e-18 0)
           0.77               (3.7599919 6.6927467e-19 0)
          0.775               (3.783026 2.1464668e-19 0)
           0.78               (3.8060171 -2.3198189e-19 0)
          0.785               (3.8289647 -2.2630525e-19 0)
           0.79               (3.8518681 3.1621677e-19 0)
          0.795               (3.8747268 3.3076367e-19 0)
            0.8               (3.8975404 3.0517035e-19 0)
          0.805               (3.9203081 8.6565312e-19 0)
           0.81               (3.9430296 8.434831e-19 0)
          0.815               (3.9657042 1.2997071e-18 0)
           0.82               (3.9883314 2.0099698e-18 0)
          0.825               (4.0109108 2.2406673e-18 0)
           0.83               (4.0334418 1.789572e-18 0)
          0.835               (4.0559238 2.0187073e-18 0)
           0.84               (4.0783563 1.3096731e-18 0)
          0.845               (4.1007388 1.3581153e-18 0)
           0.85               (4.1230706 8.9218905e-19 0)
          0.855               (4.1453514 9.9928627e-19 0)
           0.86               (4.1675806 1.9221568e-18 0)
          0.865               (4.1897576 1.4520375e-18 0)
           0.87               (4.2118819 1.5150517e-18 0)
          0.875               (4.233953 1.7868056e-18 0)
           0.88               (4.2559704 2.2403005e-18 0)
          0.885               (4.2779335 3.0508662e-18 0)
           0.89               (4.2998419 3.3519846e-18 0)
          0.895               (4.3216949 3.725274e-18 0)
            0.9               (4.3434922 4.6015565e-18 0)
          0.905               (4.3652331 5.3141453e-18 0)
           0.91               (4.3869173 5.2393943e-18 0)
          0.915               (4.4085442 5.2079976e-18 0)
           0.92               (4.4301133 5.1785559e-18 0)
          0.925               (4.4516243 5.106669e-18 0)
           0.93               (4.4730768 5.0949452e-18 0)
          0.935               (4.4944701 5.1814687e-18 0)
           0.94               (4.5158039 5.2858846e-18 0)
          0.945               (4.5370775 5.4024796e-18 0)
           0.95               (4.5582906 4.8115075e-18 0)
          0.955               (4.5794426 4.6454692e-18 0)
           0.96               (4.600533 5.348196e-18 0)
          0.965               (4.6215614 5.8015753e-18 0)
           0.97               (4.6425273 5.9589317e-18 0)
          0.975               (4.6634301 5.9962898e-18 0)
           0.98               (4.6842695 5.6403239e-18 0)
          0.985               (4.705045 4.8402098e-18 0)
           0.99               (4.725756 4.1320778e-18 0)
          0.995               (4.7464023 3.3467539e-18 0)
              1               (4.7669834 3.0708511e-18 0)
          1.005               (4.7874988 2.8664081e-18 0)
           1.01               (4.807948 2.6690329e-18 0)
          1.015               (4.8283307 2.5027677e-18 0)
           1.02               (4.8486464 2.4213667e-18 0)
          1.025               (4.8688947 2.419088e-18 0)
           1.03               (4.8890752 2.3182379e-18 0)
          1.035               (4.9091874 1.3972323e-18 0)
           1.04               (4.9292311 5.7434453e-19 0)
          1.045               (4.9492057 -4.2000689e-19 0)
           1.05               (4.9691109 -7.4765879e-19 0)
          1.055               (4.9889463 -1.9253981e-18 0)
           1.06               (5.0087117 -2.1864177e-18 0)
          1.065               (5.0284065 -1.7847106e-18 0)
           1.07               (5.0480304 -1.0443625e-18 0)
          1.075               (5.0675828 -3.3784487e-19 0)
           1.08               (5.0870635 3.7954696e-19 0)
          1.085               (5.106472 4.0990384e-19 0)
           1.09               (5.1258081 2.0957197e-19 0)
          1.095               (5.1450712 7.7254586e-19 0)
            1.1               (5.1642609 1.2729958e-18 0)
          1.105               (5.1833771 2.0201502e-18 0)
           1.11               (5.2024191 2.6988216e-18 0)
          1.115               (5.2213869 3.5549298e-18 0)
           1.12               (5.2402799 3.2633872e-18 0)
          1.125               (5.2590978 2.8569636e-18 0)
           1.13               (5.2778404 2.7848556e-18 0)
          1.135               (5.2965072 2.83112e-18 0)
           1.14               (5.3150979 2.2663607e-18 0)
          1.145               (5.3336122 2.0052755e-18 0)
           1.15               (5.35205 2.0399582e-18 0)
          1.155               (5.3704109 2.1606781e-18 0)
           1.16               (5.3886945 2.6316979e-18 0)
          1.165               (5.4069004 2.3434487e-18 0)
           1.17               (5.4250284 2.7099551e-18 0)
          1.175               (5.4430781 3.8340028e-18 0)
           1.18               (5.4610491 5.2856269e-18 0)
          1.185               (5.4789413 6.0038258e-18 0)
           1.19               (5.4967543 6.041022e-18 0)
          1.195               (5.5144878 5.7299669e-18 0)
            1.2               (5.5321414 5.0139272e-18 0)
          1.205               (5.5497149 5.0080851e-18 0)
           1.21               (5.567208 4.2277123e-18 0)
          1.215               (5.5846205 3.9101808e-18 0)
           1.22               (5.6019521 3.4342734e-18 0)
          1.225               (5.6192026 2.2653453e-18 0)
           1.23               (5.6363715 2.1563852e-18 0)
          1.235               (5.6534588 2.5557911e-18 0)
           1.24               (5.6704641 2.11822e-18 0)
          1.245               (5.6873873 2.0438001e-18 0)
           1.25               (5.7042281 1.7233479e-18 0)
          1.255               (5.7209863 1.0027124e-18 0)
           1.26               (5.7376617 8.8320245e-20 0)
          1.265               (5.754254 -2.0146549e-19 0)
           1.27               (5.7707629 -4.1722059e-19 0)
          1.275               (5.7871883 -1.3001304e-18 0)
           1.28               (5.8035298 -1.5017434e-18 0)
          1.285               (5.8197873 -1.6368633e-18 0)
           1.29               (5.8359605 -1.881152e-18 0)
          1.295               (5.8520492 -2.1263539e-18 0)
            1.3               (5.8680532 -1.9338734e-18 0)
          1.305               (5.8839722 -2.5093611e-18 0)
           1.31               (5.8998061 -3.155332e-18 0)
          1.315               (5.9155546 -4.1161343e-18 0)
           1.32               (5.9312177 -5.2095975e-18 0)
          1.325               (5.946795 -5.3163304e-18 0)
           1.33               (5.9622865 -4.8023104e-18 0)
          1.335               (5.9776921 -5.0509703e-18 0)
           1.34               (5.9930115 -5.4968996e-18 0)
          1.345               (6.0082447 -5.7972315e-18 0)
           1.35               (6.0233913 -5.2661166e-18 0)
          1.355               (6.0384512 -4.5501458e-18 0)
           1.36               (6.0534243 -4.330027e-18 0)
          1.365               (6.0683103 -4.3640276e-18 0)
           1.37               (6.0831092 -4.1415882e-18 0)
          1.375               (6.0978207 -4.8269091e-18 0)
           1.38               (6.1124447 -5.563811e-18 0)
          1.385               (6.1269811 -5.5802247e-18 0)
           1.39               (6.1414297 -5.8631934e-18 0)
          1.395               (6.1557903 -5.3535055e-18 0)
            1.4               (6.1700627 -4.7511331e-18 0)
          1.405               (6.1842469 -4.6746139e-18 0)
           1.41               (6.1983428 -4.6702347e-18 0)
          1.415               (6.2123501 -5.3903252e-18 0)
           1.42               (6.2262689 -5.8784392e-18 0)
          1.425               (6.240099 -6.2842302e-18 0)
           1.43               (6.2538403 -6.5323851e-18 0)
          1.435               (6.2674927 -6.4011913e-18 0)
           1.44               (6.2810561 -6.6756634e-18 0)
          1.445               (6.2945303 -7.0829001e-18 0)
           1.45               (6.3079151 -7.002385e-18 0)
          1.455               (6.3212105 -7.6938211e-18 0)
           1.46               (6.3344165 -7.7934871e-18 0)
          1.465               (6.3475329 -7.8236429e-18 0)
           1.47               (6.3605597 -8.4606974e-18 0)
          1.475               (6.3734971 -9.0146785e-18 0)
           1.48               (6.386345 -9.2742848e-18 0)
          1.485               (6.3991032 -9.1383727e-18 0)
           1.49               (6.4117717 -9.4775708e-18 0)
          1.495               (6.4243502 -9.5996922e-18 0)
            1.5               (6.4368388 -1.0297036e-17 0)
          1.505               (6.4492374 -1.0365619e-17 0)
           1.51               (6.4615459 -1.0767381e-17 0)
          1.515               (6.4737642 -1.1437212e-17 0)
           1.52               (6.4858924 -1.1513605e-17 0)
          1.525               (6.4979303 -1.1638795e-17 0)
           1.53               (6.5098778 -1.0925439e-17 0)
          1.535               (6.5217349 -1.0528093e-17 0)
           1.54               (6.5335015 -9.7757592e-18 0)
          1.545               (6.5451777 -1.0226866e-17 0)
           1.55               (6.5567633 -1.1109354e-17 0)
          1.555               (6.5682584 -1.0948445e-17 0)
           1.56               (6.5796629 -1.0776599e-17 0)
          1.565               (6.5909769 -1.119703e-17 0)
           1.57               (6.6022005 -1.1076902e-17 0)
          1.575               (6.6133334 -1.1956899e-17 0)
           1.58               (6.6243757 -1.1978911e-17 0)
          1.585               (6.6353274 -1.3029809e-17 0)
           1.59               (6.6461885 -1.3482061e-17 0)
          1.595               (6.656959 -1.4246169e-17 0)
            1.6               (6.6676389 -1.3607661e-17 0)
          1.605               (6.6782282 -1.2644705e-17 0)
           1.61               (6.6887269 -1.1841838e-17 0)
          1.615               (6.6991349 -1.0551389e-17 0)
           1.62               (6.7094528 -9.5589308e-18 0)
          1.625               (6.7196806 -8.820274e-18 0)
           1.63               (6.7298181 -8.0373856e-18 0)
          1.635               (6.7398654 -7.86867e-18 0)
           1.64               (6.7498223 -7.166439e-18 0)
          1.645               (6.759689 -7.0724695e-18 0)
           1.65               (6.7694653 -7.1478904e-18 0)
          1.655               (6.7791513 -6.8655466e-18 0)
           1.66               (6.7887469 -6.5024367e-18 0)
          1.665               (6.7982521 -5.7435086e-18 0)
           1.67               (6.807667 -4.3091139e-18 0)
          1.675               (6.8169917 -4.0724473e-18 0)
           1.68               (6.8262262 -4.1666776e-18 0)
          1.685               (6.8353705 -4.6276219e-18 0)
           1.69               (6.8444247 -4.9201922e-18 0)
          1.695               (6.8533888 -5.088848e-18 0)
            1.7               (6.8622629 -5.5101412e-18 0)
          1.705               (6.871047 -5.8149847e-18 0)
           1.71               (6.879741 -6.5250745e-18 0)
          1.715               (6.8883453 -7.3897837e-18 0)
           1.72               (6.8968601 -6.2772005e-18 0)
          1.725               (6.9052853 -6.4587397e-18 0)
           1.73               (6.9136209 -7.4742262e-18 0)
          1.735               (6.921867 -7.99652e-18 0)
           1.74               (6.9300236 -8.8343939e-18 0)
          1.745               (6.9380908 -8.7810272e-18 0)
           1.75               (6.9460687 -9.2406439e-18 0)
          1.755               (6.9539573 -1.0003466e-17 0)
           1.76               (6.9617568 -1.0443118e-17 0)
          1.765               (6.9694671 -1.0837064e-17 0)
           1.77               (6.9770884 -1.1801134e-17 0)
          1.775               (6.9846209 -1.2529387e-17 0)
           1.78               (6.9920645 -1.3594893e-17 0)
          1.785               (6.9994193 -1.3038904e-17 0)
           1.79               (7.0066855 -1.2349048e-17 0)
          1.795               (7.013863 -1.1111907e-17 0)
            1.8               (7.0209521 -1.0945032e-17 0)
          1.805               (7.0279527 -1.1574922e-17 0)
           1.81               (7.0348651 -1.1909094e-17 0)
          1.815               (7.0416893 -1.2575189e-17 0)
           1.82               (7.0484255 -1.4657353e-17 0)
          1.825               (7.0550735 -1.6559194e-17 0)
           1.83               (7.0616337 -1.8037945e-17 0)
          1.835               (7.068106 -1.941603e-17 0)
           1.84               (7.0744907 -2.0977015e-17 0)
          1.845               (7.0807877 -2.1059883e-17 0)
           1.85               (7.0869975 -2.1989429e-17 0)
          1.855               (7.0931198 -2.2739488e-17 0)
           1.86               (7.0991555 -2.3835564e-17 0)
          1.865               (7.1051046 -2.4862833e-17 0)
           1.87               (7.1109671 -2.6002519e-17 0)
          1.875               (7.116743 -2.7222585e-17 0)
           1.88               (7.1224325 -2.6960663e-17 0)
          1.885               (7.1280355 -2.6585336e-17 0)
           1.89               (7.1335523 -2.5479753e-17 0)
          1.895               (7.138983 -2.4988565e-17 0)
            1.9               (7.1443277 -2.4958765e-17 0)
          1.905               (7.1495865 -2.6016722e-17 0)
           1.91               (7.1547595 -2.6596782e-17 0)
          1.915               (7.1598468 -2.7540273e-17 0)
           1.92               (7.1648486 -2.9216513e-17 0)
          1.925               (7.1697651 -3.0729373e-17 0)
           1.93               (7.1745963 -3.1699654e-17 0)
          1.935               (7.1793424 -3.2487788e-17 0)
           1.94               (7.1840036 -3.3712727e-17 0)
          1.945               (7.1885799 -3.4248289e-17 0)
           1.95               (7.1930717 -3.450669e-17 0)
          1.955               (7.1974789 -3.4811565e-17 0)
           1.96               (7.2018018 -3.4988713e-17 0)
          1.965               (7.2060405 -3.5439865e-17 0)
           1.97               (7.2101952 -3.587729e-17 0)
          1.975               (7.2142661 -3.5876291e-17 0)
           1.98               (7.2182533 -3.5664229e-17 0)
          1.985               (7.222157 -3.6413849e-17 0)
           1.99               (7.2259774 -3.7073286e-17 0)
          1.995               (7.2297149 -3.8368702e-17 0)
              2               (7.2333696 -3.9748807e-17 0)
          2.005               (7.2369417 -3.9798057e-17 0)
           2.01               (7.2404313 -4.0729567e-17 0)
          2.015               (7.2438385 -4.160999e-17 0)
           2.02               (7.2471636 -4.1952977e-17 0)
          2.025               (7.2504066 -4.2528839e-17 0)
           2.03               (7.2535678 -4.3577333e-17 0)
          2.035               (7.2566472 -4.5686689e-17 0)
           2.04               (7.2596452 -4.90886e-17 0)
          2.045               (7.2625617 -4.7516303e-17 0)
           2.05               (7.2653972 -4.7017853e-17 0)
          2.055               (7.2681516 -4.5850125e-17 0)
           2.06               (7.2708252 -4.5599572e-17 0)
          2.065               (7.2734182 -4.6003166e-17 0)
           2.07               (7.2759308 -3.7328318e-17 0)
          2.075               (7.2783631 -3.0268922e-17 0)
           2.08               (7.2807154 -2.6125004e-17 0)
          2.085               (7.2829877 -2.44771e-17 0)
           2.09               (7.2851804 -2.3988738e-17 0)
          2.095               (7.2872936 -2.4467945e-17 0)
            2.1               (7.2893274 -2.2979351e-17 0)
          2.105               (7.2912822 -2.2563585e-17 0)
           2.11               (7.293158 -2.2688832e-17 0)
          2.115               (7.2949551 -2.4284703e-17 0)
           2.12               (7.2966737 -2.6244628e-17 0)
          2.125               (7.2983139 -2.7417498e-17 0)
           2.13               (7.299876 -2.8023691e-17 0)
          2.135               (7.3013602 -2.8288825e-17 0)
           2.14               (7.3027666 -2.7925955e-17 0)
          2.145               (7.3040954 -2.7881116e-17 0)
           2.15               (7.305347 -2.7932128e-17 0)
          2.155               (7.3065214 -2.7608345e-17 0)
           2.16               (7.3076188 -2.7595124e-17 0)
          2.165               (7.3086396 -2.8271965e-17 0)
           2.17               (7.3095838 -2.8745123e-17 0)
          2.175               (7.3104517 -2.9452999e-17 0)
           2.18               (7.3112435 -3.0488098e-17 0)
          2.185               (7.3119594 -3.1291869e-17 0)
           2.19               (7.3125996 -3.1465158e-17 0)
          2.195               (7.3131642 -3.1334404e-17 0)
            2.2               (7.3136537 -3.153173e-17 0)
          2.205               (7.314068 -3.2238782e-17 0)
           2.21               (7.3144075 -3.2466675e-17 0)
          2.215               (7.3146724 -3.2189072e-17 0)
           2.22               (7.3148628 -3.24959e-17 0)
          2.225               (7.314979 -3.2693748e-17 0)
           2.23               (7.3150212 -3.2791522e-17 0)
          2.235               (7.3149896 -3.3577365e-17 0)
           2.24               (7.3148845 -3.3380535e-17 0)
          2.245               (7.314706 -3.3212612e-17 0)
           2.25               (7.3144543 -3.2404203e-17 0)
          2.255               (7.3141297 -3.1763688e-17 0)
           2.26               (7.3137324 -3.1516364e-17 0)
          2.265               (7.3132627 -3.173662e-17 0)
           2.27               (7.3127206 -3.2057427e-17 0)
          2.275               (7.3121066 -3.2789386e-17 0)
           2.28               (7.3114206 -3.3401513e-17 0)
          2.285               (7.3106631 -3.3870789e-17 0)
           2.29               (7.3098342 -3.4868859e-17 0)
          2.295               (7.3089342 -3.6050998e-17 0)
            2.3               (7.3079631 -3.5612373e-17 0)
          2.305               (7.3069214 -3.5075366e-17 0)
           2.31               (7.3058092 -3.5732778e-17 0)
          2.315               (7.3046267 -3.5573652e-17 0)
           2.32               (7.3033742 -3.5485744e-17 0)
          2.325               (7.3020518 -3.5740114e-17 0)
           2.33               (7.3006598 -3.5431436e-17 0)
          2.335               (7.2991985 -3.4969672e-17 0)
           2.34               (7.2976681 -3.4651103e-17 0)
          2.345               (7.2960687 -3.5566086e-17 0)
           2.35               (7.2944006 -3.515967e-17 0)
          2.355               (7.2926641 -3.5009094e-17 0)
           2.36               (7.2908593 -3.4212813e-17 0)
          2.365               (7.2889865 -3.3057201e-17 0)
           2.37               (7.2870459 -3.2721885e-17 0)
          2.375               (7.2850378 -3.3083751e-17 0)
           2.38               (7.2829624 -3.4378013e-17 0)
          2.385               (7.2808199 -3.5715862e-17 0)
           2.39               (7.2786105 -3.5172045e-17 0)
          2.395               (7.2763345 -3.5270948e-17 0)
            2.4               (7.2739921 -3.4202322e-17 0)
          2.405               (7.2715835 -3.4752352e-17 0)
           2.41               (7.269109 -3.5871747e-17 0)
          2.415               (7.2665688 -3.6340619e-17 0)
           2.42               (7.2639631 -3.6795885e-17 0)
          2.425               (7.2612922 -3.7240996e-17 0)
           2.43               (7.2585563 -3.7141165e-17 0)
          2.435               (7.2557555 -3.7867272e-17 0)
           2.44               (7.2528903 -3.7611893e-17 0)
          2.445               (7.2499607 -3.7129549e-17 0)
           2.45               (7.2469671 -3.7043293e-17 0)
          2.455               (7.2439096 -3.6798521e-17 0)
           2.46               (7.2407885 -3.7687039e-17 0)
          2.465               (7.237604 -3.8730073e-17 0)
           2.47               (7.2343564 -3.8859445e-17 0)
          2.475               (7.2310459 -3.9700168e-17 0)
           2.48               (7.2276727 -4.0211675e-17 0)
          2.485               (7.2242371 -4.1419878e-17 0)
           2.49               (7.2207393 -4.2528862e-17 0)
          2.495               (7.2171795 -4.266114e-17 0)
            2.5               (7.213558 -4.1508742e-17 0)
          2.505               (7.2098749 -4.0685039e-17 0)
           2.51               (7.2061307 -3.9157876e-17 0)
          2.515               (7.2023254 -3.9123608e-17 0)
           2.52               (7.1984593 -3.9347601e-17 0)
          2.525               (7.1945326 -3.9587239e-17 0)
           2.53               (7.1905456 -4.1166129e-17 0)
          2.535               (7.1864986 -4.2517157e-17 0)
           2.54               (7.1823917 -4.3734866e-17 0)
          2.545               (7.1782252 -4.4292643e-17 0)
           2.55               (7.1739993 -4.5242017e-17 0)
          2.555               (7.1697143 -4.7107949e-17 0)
           2.56               (7.1653705 -4.8238116e-17 0)